Program Version,EnergyPlus, Version 25.1.0-68a4a7c774, YMD=2026.01.07 23:31
1,5,Environment Title[],Latitude[deg],Longitude[deg],Time Zone[],Elevation[m]
2,8,Day of Simulation[],Month[],Day of Month[],DST Indicator[1=yes 0=no],Hour[],StartMinute[],EndMinute[],DayType
3,5,Cumulative Day of Simulation[],Month[],Day of Month[],DST Indicator[1=yes 0=no],DayType  ! When Daily Meters Requested
4,2,Cumulative Days of Simulation[],Month[]  ! When Monthly Meters Requested
5,1,Cumulative Days of Simulation[] ! When Run Period Meters Requested
6,1,Calendar Year of Simulation[] ! When Annual Meters Requested
137,1,Electricity:Facility [J] !Hourly
3494,1,ElectricityNet:Facility [J] !Hourly
End of Data Dictionary
1,RUNPERIOD 1,  34.05,-118.24,  -8.00,   0.00
2,1, 1, 1, 0, 1, 0.00,60.00,Holiday
137,54157129.97593142
3494,54157129.97593142
2,1, 1, 1, 0, 2, 0.00,60.00,Holiday
137,54157290.74955592
3494,54157290.74955592
2,1, 1, 1, 0, 3, 0.00,60.00,Holiday
137,54157290.74955592
3494,54157290.74955592
2,1, 1, 1, 0, 4, 0.00,60.00,Holiday
137,54157290.74955592
3494,54157290.74955592
2,1, 1, 1, 0, 5, 0.00,60.00,Holiday
137,54157290.74955592
3494,54157290.74955592
2,1, 1, 1, 0, 6, 0.00,60.00,Holiday
137,54157290.74955592
3494,54157290.74955592
2,1, 1, 1, 0, 7, 0.00,60.00,Holiday
137,74447615.50655627
3494,74447615.50655627
2,1, 1, 1, 0, 8, 0.00,60.00,Holiday
137,53876451.96138742
3494,53876451.961387426
2,1, 1, 1, 0, 9, 0.00,60.00,Holiday
137,53123142.62594655
3494,53123142.62594655
2,1, 1, 1, 0,10, 0.00,60.00,Holiday
137,53100571.45300382
3494,53100571.45300382
2,1, 1, 1, 0,11, 0.00,60.00,Holiday
137,53100571.45300382
3494,53100571.45300382
2,1, 1, 1, 0,12, 0.00,60.00,Holiday
137,53100571.45300382
3494,53100571.45300382
2,1, 1, 1, 0,13, 0.00,60.00,Holiday
137,62940707.290137485
3494,62940707.290137485
2,1, 1, 1, 0,14, 0.00,60.00,Holiday
137,82877292.15820125
3494,82877292.15820125
2,1, 1, 1, 0,15, 0.00,60.00,Holiday
137,71251154.129628
3494,71251154.12962802
2,1, 1, 1, 0,16, 0.00,60.00,Holiday
137,53115767.485983044
3494,53115767.485983044
2,1, 1, 1, 0,17, 0.00,60.00,Holiday
137,60472312.89170639
3494,60472312.89170638
2,1, 1, 1, 0,18, 0.00,60.00,Holiday
137,74637639.57987787
3494,74637639.57987787
2,1, 1, 1, 0,19, 0.00,60.00,Holiday
137,65597289.79607374
3494,65597289.79607374
2,1, 1, 1, 0,20, 0.00,60.00,Holiday
137,56920794.74955592
3494,56920794.74955593
2,1, 1, 1, 0,21, 0.00,60.00,Holiday
137,56920794.74955592
3494,56920794.74955593
2,1, 1, 1, 0,22, 0.00,60.00,Holiday
137,56920794.74955592
3494,56920794.74955593
2,1, 1, 1, 0,23, 0.00,60.00,Holiday
137,56920794.74955592
3494,56920794.74955593
2,1, 1, 1, 0,24, 0.00,60.00,Holiday
137,56920794.74955592
3494,56920794.74955593
2,2, 1, 2, 0, 1, 0.00,60.00,Monday
137,65407915.1537362
3494,65407915.1537362
2,2, 1, 2, 0, 2, 0.00,60.00,Monday
137,65407915.1537362
3494,65407915.1537362
2,2, 1, 2, 0, 3, 0.00,60.00,Monday
137,65407915.1537362
3494,65407915.1537362
2,2, 1, 2, 0, 4, 0.00,60.00,Monday
137,65407915.1537362
3494,65407915.1537362
2,2, 1, 2, 0, 5, 0.00,60.00,Monday
137,65407915.1537362
3494,65407915.1537362
2,2, 1, 2, 0, 6, 0.00,60.00,Monday
137,65407915.1537362
3494,65407915.1537362
2,2, 1, 2, 0, 7, 0.00,60.00,Monday
137,139338118.249269
3494,139338118.24926904
2,2, 1, 2, 0, 8, 0.00,60.00,Monday
137,250536157.67764503
3494,250536157.6776451
2,2, 1, 2, 0, 9, 0.00,60.00,Monday
137,271900744.35249
3494,271900744.35249007
2,2, 1, 2, 0,10, 0.00,60.00,Monday
137,244194628.9092151
3494,244194628.9092151
2,2, 1, 2, 0,11, 0.00,60.00,Monday
137,243254608.47642437
3494,243254608.4764244
2,2, 1, 2, 0,12, 0.00,60.00,Monday
137,251885361.51041615
3494,251885361.5104162
2,2, 1, 2, 0,13, 0.00,60.00,Monday
137,250093348.8445423
3494,250093348.84454238
2,2, 1, 2, 0,14, 0.00,60.00,Monday
137,260930347.5760394
3494,260930347.57603943
2,2, 1, 2, 0,15, 0.00,60.00,Monday
137,254111201.42287263
3494,254111201.42287266
2,2, 1, 2, 0,16, 0.00,60.00,Monday
137,260107862.6477369
3494,260107862.64773697
2,2, 1, 2, 0,17, 0.00,60.00,Monday
137,280595408.005604
3494,280595408.0056041
2,2, 1, 2, 0,18, 0.00,60.00,Monday
137,216753303.8884988
3494,216753303.8884988
2,2, 1, 2, 0,19, 0.00,60.00,Monday
137,148518250.4013461
3494,148518250.40134606
2,2, 1, 2, 0,20, 0.00,60.00,Monday
137,144929133.90664592
3494,144929133.9066459
2,2, 1, 2, 0,21, 0.00,60.00,Monday
137,142173768.4637707
3494,142173768.4637707
2,2, 1, 2, 0,22, 0.00,60.00,Monday
137,146899134.329899
3494,146899134.32989898
2,2, 1, 2, 0,23, 0.00,60.00,Monday
137,85134722.37354441
3494,85134722.37354442
2,2, 1, 2, 0,24, 0.00,60.00,Monday
137,80131530.28038286
3494,80131530.28038286
2,3, 1, 3, 0, 1, 0.00,60.00,Tuesday
137,65597949.44438682
3494,65597949.44438682
2,3, 1, 3, 0, 2, 0.00,60.00,Tuesday
137,65407915.1537362
3494,65407915.1537362
2,3, 1, 3, 0, 3, 0.00,60.00,Tuesday
137,65407915.1537362
3494,65407915.1537362
2,3, 1, 3, 0, 4, 0.00,60.00,Tuesday
137,65407915.1537362
3494,65407915.1537362
2,3, 1, 3, 0, 5, 0.00,60.00,Tuesday
137,65407915.1537362
3494,65407915.1537362
2,3, 1, 3, 0, 6, 0.00,60.00,Tuesday
137,65407915.1537362
3494,65407915.1537362
2,3, 1, 3, 0, 7, 0.00,60.00,Tuesday
137,125282384.51506099
3494,125282384.51506099
2,3, 1, 3, 0, 8, 0.00,60.00,Tuesday
137,230269725.30029058
3494,230269725.30029064
2,3, 1, 3, 0, 9, 0.00,60.00,Tuesday
137,282917697.2705068
3494,282917697.2705069
2,3, 1, 3, 0,10, 0.00,60.00,Tuesday
137,259339322.0413845
3494,259339322.04138452
2,3, 1, 3, 0,11, 0.00,60.00,Tuesday
137,253351031.54295194
3494,253351031.54295197
2,3, 1, 3, 0,12, 0.00,60.00,Tuesday
137,261642355.99721965
3494,261642355.99721968
2,3, 1, 3, 0,13, 0.00,60.00,Tuesday
137,299028747.11892104
3494,299028747.1189211
2,3, 1, 3, 0,14, 0.00,60.00,Tuesday
137,268484491.05452466
3494,268484491.05452466
2,3, 1, 3, 0,15, 0.00,60.00,Tuesday
137,261152714.6429363
3494,261152714.64293632
2,3, 1, 3, 0,16, 0.00,60.00,Tuesday
137,268617885.45757556
3494,268617885.45757556
2,3, 1, 3, 0,17, 0.00,60.00,Tuesday
137,284514651.00649023
3494,284514651.00649023
2,3, 1, 3, 0,18, 0.00,60.00,Tuesday
137,257286263.16314387
3494,257286263.16314393
2,3, 1, 3, 0,19, 0.00,60.00,Tuesday
137,177011497.6847711
3494,177011497.6847711
2,3, 1, 3, 0,20, 0.00,60.00,Tuesday
137,172086287.43604848
3494,172086287.43604848
2,3, 1, 3, 0,21, 0.00,60.00,Tuesday
137,167990012.97703898
3494,167990012.977039
2,3, 1, 3, 0,22, 0.00,60.00,Tuesday
137,172091828.23747334
3494,172091828.2374734
2,3, 1, 3, 0,23, 0.00,60.00,Tuesday
137,85134722.37354441
3494,85134722.37354442
2,3, 1, 3, 0,24, 0.00,60.00,Tuesday
137,80131530.28038286
3494,80131530.28038286
2,4, 1, 4, 0, 1, 0.00,60.00,Wednesday
137,65597949.44438682
3494,65597949.44438682
2,4, 1, 4, 0, 2, 0.00,60.00,Wednesday
137,65407915.1537362
3494,65407915.1537362
2,4, 1, 4, 0, 3, 0.00,60.00,Wednesday
137,65407915.1537362
3494,65407915.1537362
2,4, 1, 4, 0, 4, 0.00,60.00,Wednesday
137,65407915.1537362
3494,65407915.1537362
2,4, 1, 4, 0, 5, 0.00,60.00,Wednesday
137,65407915.1537362
3494,65407915.1537362
2,4, 1, 4, 0, 6, 0.00,60.00,Wednesday
137,65407915.1537362
3494,65407915.1537362
2,4, 1, 4, 0, 7, 0.00,60.00,Wednesday
137,136777671.543966
3494,136777671.54396603
2,4, 1, 4, 0, 8, 0.00,60.00,Wednesday
137,245705724.74710727
3494,245705724.74710733
2,4, 1, 4, 0, 9, 0.00,60.00,Wednesday
137,304941460.9824126
3494,304941460.98241264
2,4, 1, 4, 0,10, 0.00,60.00,Wednesday
137,281492779.3785478
3494,281492779.3785479
2,4, 1, 4, 0,11, 0.00,60.00,Wednesday
137,273007383.6681745
3494,273007383.6681745
2,4, 1, 4, 0,12, 0.00,60.00,Wednesday
137,278606909.84057045
3494,278606909.84057045
2,4, 1, 4, 0,13, 0.00,60.00,Wednesday
137,301606929.6023814
3494,301606929.6023814
2,4, 1, 4, 0,14, 0.00,60.00,Wednesday
137,284110215.5623623
3494,284110215.5623624
2,4, 1, 4, 0,15, 0.00,60.00,Wednesday
137,276958685.37362826
3494,276958685.3736283
2,4, 1, 4, 0,16, 0.00,60.00,Wednesday
137,279755980.44350016
3494,279755980.4435003
2,4, 1, 4, 0,17, 0.00,60.00,Wednesday
137,291326645.32232165
3494,291326645.3223217
2,4, 1, 4, 0,18, 0.00,60.00,Wednesday
137,258370463.3701666
3494,258370463.37016666
2,4, 1, 4, 0,19, 0.00,60.00,Wednesday
137,183493630.20933616
3494,183493630.20933616
2,4, 1, 4, 0,20, 0.00,60.00,Wednesday
137,179067788.10498893
3494,179067788.1049889
2,4, 1, 4, 0,21, 0.00,60.00,Wednesday
137,174697784.80277237
3494,174697784.80277237
2,4, 1, 4, 0,22, 0.00,60.00,Wednesday
137,176883161.85589704
3494,176883161.85589704
2,4, 1, 4, 0,23, 0.00,60.00,Wednesday
137,85134722.37354441
3494,85134722.37354442
2,4, 1, 4, 0,24, 0.00,60.00,Wednesday
137,80131530.28038286
3494,80131530.28038286
2,5, 1, 5, 0, 1, 0.00,60.00,Thursday
137,65597949.44438682
3494,65597949.44438682
2,5, 1, 5, 0, 2, 0.00,60.00,Thursday
137,65407915.1537362
3494,65407915.1537362
2,5, 1, 5, 0, 3, 0.00,60.00,Thursday
137,65407915.1537362
3494,65407915.1537362
2,5, 1, 5, 0, 4, 0.00,60.00,Thursday
137,65407915.1537362
3494,65407915.1537362
2,5, 1, 5, 0, 5, 0.00,60.00,Thursday
137,65407915.1537362
3494,65407915.1537362
2,5, 1, 5, 0, 6, 0.00,60.00,Thursday
137,65407915.1537362
3494,65407915.1537362
2,5, 1, 5, 0, 7, 0.00,60.00,Thursday
137,139581389.47764644
3494,139581389.47764644
2,5, 1, 5, 0, 8, 0.00,60.00,Thursday
137,242586102.95261788
3494,242586102.95261788
2,5, 1, 5, 0, 9, 0.00,60.00,Thursday
137,293479599.36150724
3494,293479599.3615073
2,5, 1, 5, 0,10, 0.00,60.00,Thursday
137,263696698.5834342
3494,263696698.5834342
2,5, 1, 5, 0,11, 0.00,60.00,Thursday
137,258590781.03077465
3494,258590781.0307747
2,5, 1, 5, 0,12, 0.00,60.00,Thursday
137,267319485.91099793
3494,267319485.91099793
2,5, 1, 5, 0,13, 0.00,60.00,Thursday
137,267389165.37781084
3494,267389165.37781093
2,5, 1, 5, 0,14, 0.00,60.00,Thursday
137,279820092.6880814
3494,279820092.68808144
2,5, 1, 5, 0,15, 0.00,60.00,Thursday
137,272288354.893587
3494,272288354.893587
2,5, 1, 5, 0,16, 0.00,60.00,Thursday
137,271912758.18502766
3494,271912758.18502766
2,5, 1, 5, 0,17, 0.00,60.00,Thursday
137,287694822.9827686
3494,287694822.9827686
2,5, 1, 5, 0,18, 0.00,60.00,Thursday
137,234802932.36799282
3494,234802932.36799285
2,5, 1, 5, 0,19, 0.00,60.00,Thursday
137,148273310.14961758
3494,148273310.14961758
2,5, 1, 5, 0,20, 0.00,60.00,Thursday
137,141136394.03506473
3494,141136394.03506473
2,5, 1, 5, 0,21, 0.00,60.00,Thursday
137,136914098.14815265
3494,136914098.14815265
2,5, 1, 5, 0,22, 0.00,60.00,Thursday
137,142789353.9049189
3494,142789353.9049189
2,5, 1, 5, 0,23, 0.00,60.00,Thursday
137,85134722.37354441
3494,85134722.37354442
2,5, 1, 5, 0,24, 0.00,60.00,Thursday
137,80131530.28038286
3494,80131530.28038286
2,6, 1, 6, 0, 1, 0.00,60.00,Friday
137,65597949.44438682
3494,65597949.44438682
2,6, 1, 6, 0, 2, 0.00,60.00,Friday
137,65407915.1537362
3494,65407915.1537362
2,6, 1, 6, 0, 3, 0.00,60.00,Friday
137,65407915.1537362
3494,65407915.1537362
2,6, 1, 6, 0, 4, 0.00,60.00,Friday
137,65407915.1537362
3494,65407915.1537362
2,6, 1, 6, 0, 5, 0.00,60.00,Friday
137,65407915.1537362
3494,65407915.1537362
2,6, 1, 6, 0, 6, 0.00,60.00,Friday
137,65407915.1537362
3494,65407915.1537362
2,6, 1, 6, 0, 7, 0.00,60.00,Friday
137,128868431.39011817
3494,128868431.39011817
2,6, 1, 6, 0, 8, 0.00,60.00,Friday
137,229362472.28097108
3494,229362472.28097108
2,6, 1, 6, 0, 9, 0.00,60.00,Friday
137,284555933.35871977
3494,284555933.3587199
2,6, 1, 6, 0,10, 0.00,60.00,Friday
137,254033585.53143817
3494,254033585.53143823
2,6, 1, 6, 0,11, 0.00,60.00,Friday
137,249338480.85567138
3494,249338480.8556714
2,6, 1, 6, 0,12, 0.00,60.00,Friday
137,258985998.84735447
3494,258985998.84735453
2,6, 1, 6, 0,13, 0.00,60.00,Friday
137,275308038.83437055
3494,275308038.83437055
2,6, 1, 6, 0,14, 0.00,60.00,Friday
137,269092269.5211676
3494,269092269.52116764
2,6, 1, 6, 0,15, 0.00,60.00,Friday
137,260189803.61993358
3494,260189803.6199336
2,6, 1, 6, 0,16, 0.00,60.00,Friday
137,261905343.82164216
3494,261905343.82164216
2,6, 1, 6, 0,17, 0.00,60.00,Friday
137,281050518.3357593
3494,281050518.3357593
2,6, 1, 6, 0,18, 0.00,60.00,Friday
137,241005754.73064604
3494,241005754.73064607
2,6, 1, 6, 0,19, 0.00,60.00,Friday
137,153965380.2319712
3494,153965380.2319712
2,6, 1, 6, 0,20, 0.00,60.00,Friday
137,148710657.27359283
3494,148710657.2735928
2,6, 1, 6, 0,21, 0.00,60.00,Friday
137,144611269.0661633
3494,144611269.0661633
2,6, 1, 6, 0,22, 0.00,60.00,Friday
137,148695618.88050425
3494,148695618.88050422
2,6, 1, 6, 0,23, 0.00,60.00,Friday
137,85134722.37354441
3494,85134722.37354442
2,6, 1, 6, 0,24, 0.00,60.00,Friday
137,80131530.28038286
3494,80131530.28038286
2,7, 1, 7, 0, 1, 0.00,60.00,Saturday
137,54347289.79607374
3494,54347289.79607374
2,7, 1, 7, 0, 2, 0.00,60.00,Saturday
137,54157290.74955592
3494,54157290.74955592
2,7, 1, 7, 0, 3, 0.00,60.00,Saturday
137,54157290.74955592
3494,54157290.74955592
2,7, 1, 7, 0, 4, 0.00,60.00,Saturday
137,54157290.74955592
3494,54157290.74955592
2,7, 1, 7, 0, 5, 0.00,60.00,Saturday
137,54157290.74955592
3494,54157290.74955592
2,7, 1, 7, 0, 6, 0.00,60.00,Saturday
137,54157290.74955592
3494,54157290.74955592
2,7, 1, 7, 0, 7, 0.00,60.00,Saturday
137,125684307.28663479
3494,125684307.28663479
2,7, 1, 7, 0, 8, 0.00,60.00,Saturday
137,170554217.87379116
3494,170554217.87379122
2,7, 1, 7, 0, 9, 0.00,60.00,Saturday
137,164967830.76967221
3494,164967830.76967224
2,7, 1, 7, 0,10, 0.00,60.00,Saturday
137,153025754.83347955
3494,153025754.83347955
2,7, 1, 7, 0,11, 0.00,60.00,Saturday
137,145873223.65287188
3494,145873223.65287185
2,7, 1, 7, 0,12, 0.00,60.00,Saturday
137,150999495.38733003
3494,150999495.38733006
2,7, 1, 7, 0,13, 0.00,60.00,Saturday
137,119563012.19519465
3494,119563012.19519465
2,7, 1, 7, 0,14, 0.00,60.00,Saturday
137,112207599.140468
3494,112207599.140468
2,7, 1, 7, 0,15, 0.00,60.00,Saturday
137,108932732.2901598
3494,108932732.2901598
2,7, 1, 7, 0,16, 0.00,60.00,Saturday
137,106244140.23399726
3494,106244140.23399729
2,7, 1, 7, 0,17, 0.00,60.00,Saturday
137,113912919.89473
3494,113912919.89473
2,7, 1, 7, 0,18, 0.00,60.00,Saturday
137,106588972.25219062
3494,106588972.25219062
2,7, 1, 7, 0,19, 0.00,60.00,Saturday
137,74637639.57987787
3494,74637639.57987787
2,7, 1, 7, 0,20, 0.00,60.00,Saturday
137,57110793.79607374
3494,57110793.79607375
2,7, 1, 7, 0,21, 0.00,60.00,Saturday
137,56920794.74955592
3494,56920794.74955593
2,7, 1, 7, 0,22, 0.00,60.00,Saturday
137,56920794.74955592
3494,56920794.74955593
2,7, 1, 7, 0,23, 0.00,60.00,Saturday
137,56920794.74955592
3494,56920794.74955593
2,7, 1, 7, 0,24, 0.00,60.00,Saturday
137,56920794.74955592
3494,56920794.74955593
2,8, 1, 8, 0, 1, 0.00,60.00,Sunday
137,54157290.74955592
3494,54157290.74955592
2,8, 1, 8, 0, 2, 0.00,60.00,Sunday
137,54157290.74955592
3494,54157290.74955592
2,8, 1, 8, 0, 3, 0.00,60.00,Sunday
137,54157290.74955592
3494,54157290.74955592
2,8, 1, 8, 0, 4, 0.00,60.00,Sunday
137,54157290.74955592
3494,54157290.74955592
2,8, 1, 8, 0, 5, 0.00,60.00,Sunday
137,54157290.74955592
3494,54157290.74955592
2,8, 1, 8, 0, 6, 0.00,60.00,Sunday
137,54157290.74955592
3494,54157290.74955592
2,8, 1, 8, 0, 7, 0.00,60.00,Sunday
137,74447615.50655627
3494,74447615.50655627
2,8, 1, 8, 0, 8, 0.00,60.00,Sunday
137,53922996.17075372
3494,53922996.17075371
2,8, 1, 8, 0, 9, 0.00,60.00,Sunday
137,53138016.1674333
3494,53138016.1674333
2,8, 1, 8, 0,10, 0.00,60.00,Sunday
137,53100571.45300382
3494,53100571.45300382
2,8, 1, 8, 0,11, 0.00,60.00,Sunday
137,53100571.45300382
3494,53100571.45300382
2,8, 1, 8, 0,12, 0.00,60.00,Sunday
137,53100571.45300382
3494,53100571.45300382
2,8, 1, 8, 0,13, 0.00,60.00,Sunday
137,53100571.45300382
3494,53100571.45300382
2,8, 1, 8, 0,14, 0.00,60.00,Sunday
137,53100571.45300382
3494,53100571.45300382
2,8, 1, 8, 0,15, 0.00,60.00,Sunday
137,53100571.45300382
3494,53100571.45300382
2,8, 1, 8, 0,16, 0.00,60.00,Sunday
137,53136045.54369815
3494,53136045.54369814
2,8, 1, 8, 0,17, 0.00,60.00,Sunday
137,57080805.569533035
3494,57080805.56953302
2,8, 1, 8, 0,18, 0.00,60.00,Sunday
137,74637639.57987787
3494,74637639.57987787
2,8, 1, 8, 0,19, 0.00,60.00,Sunday
137,65597289.79607374
3494,65597289.79607374
2,8, 1, 8, 0,20, 0.00,60.00,Sunday
137,56920794.74955592
3494,56920794.74955593
2,8, 1, 8, 0,21, 0.00,60.00,Sunday
137,56920794.74955592
3494,56920794.74955593
2,8, 1, 8, 0,22, 0.00,60.00,Sunday
137,56920794.74955592
3494,56920794.74955593
2,8, 1, 8, 0,23, 0.00,60.00,Sunday
137,56920794.74955592
3494,56920794.74955593
2,8, 1, 8, 0,24, 0.00,60.00,Sunday
137,56920794.74955592
3494,56920794.74955593
2,9, 1, 9, 0, 1, 0.00,60.00,Monday
137,65407915.1537362
3494,65407915.1537362
2,9, 1, 9, 0, 2, 0.00,60.00,Monday
137,65407915.1537362
3494,65407915.1537362
2,9, 1, 9, 0, 3, 0.00,60.00,Monday
137,65407915.1537362
3494,65407915.1537362
2,9, 1, 9, 0, 4, 0.00,60.00,Monday
137,65407915.1537362
3494,65407915.1537362
2,9, 1, 9, 0, 5, 0.00,60.00,Monday
137,65407915.1537362
3494,65407915.1537362
2,9, 1, 9, 0, 6, 0.00,60.00,Monday
137,65407915.1537362
3494,65407915.1537362
2,9, 1, 9, 0, 7, 0.00,60.00,Monday
137,149222058.34675604
3494,149222058.34675607
2,9, 1, 9, 0, 8, 0.00,60.00,Monday
137,261864089.7831059
3494,261864089.78310597
2,9, 1, 9, 0, 9, 0.00,60.00,Monday
137,298932501.5075892
3494,298932501.5075892
2,9, 1, 9, 0,10, 0.00,60.00,Monday
137,261873939.29932025
3494,261873939.2993203
2,9, 1, 9, 0,11, 0.00,60.00,Monday
137,251386303.79567358
3494,251386303.79567358
2,9, 1, 9, 0,12, 0.00,60.00,Monday
137,261644647.02941126
3494,261644647.02941132
2,9, 1, 9, 0,13, 0.00,60.00,Monday
137,301413160.65099686
3494,301413160.6509969
2,9, 1, 9, 0,14, 0.00,60.00,Monday
137,264994643.33061072
3494,264994643.3306107
2,9, 1, 9, 0,15, 0.00,60.00,Monday
137,253096821.15185988
3494,253096821.15185988
2,9, 1, 9, 0,16, 0.00,60.00,Monday
137,258958352.28296265
3494,258958352.28296265
2,9, 1, 9, 0,17, 0.00,60.00,Monday
137,275553627.28883946
3494,275553627.28883946
2,9, 1, 9, 0,18, 0.00,60.00,Monday
137,263143031.12120396
3494,263143031.12120396
2,9, 1, 9, 0,19, 0.00,60.00,Monday
137,195732312.6740054
3494,195732312.6740054
2,9, 1, 9, 0,20, 0.00,60.00,Monday
137,185087672.8681332
3494,185087672.8681332
2,9, 1, 9, 0,21, 0.00,60.00,Monday
137,180231131.49968487
3494,180231131.4996849
2,9, 1, 9, 0,22, 0.00,60.00,Monday
137,185325323.04960638
3494,185325323.0496064
2,9, 1, 9, 0,23, 0.00,60.00,Monday
137,85134722.37354441
3494,85134722.37354442
2,9, 1, 9, 0,24, 0.00,60.00,Monday
137,80131530.28038286
3494,80131530.28038286
2,10, 1,10, 0, 1, 0.00,60.00,Tuesday
137,65597949.44438682
3494,65597949.44438682
2,10, 1,10, 0, 2, 0.00,60.00,Tuesday
137,65407915.1537362
3494,65407915.1537362
2,10, 1,10, 0, 3, 0.00,60.00,Tuesday
137,65407915.1537362
3494,65407915.1537362
2,10, 1,10, 0, 4, 0.00,60.00,Tuesday
137,65407915.1537362
3494,65407915.1537362
2,10, 1,10, 0, 5, 0.00,60.00,Tuesday
137,65407915.1537362
3494,65407915.1537362
2,10, 1,10, 0, 6, 0.00,60.00,Tuesday
137,65407915.1537362
3494,65407915.1537362
2,10, 1,10, 0, 7, 0.00,60.00,Tuesday
137,195360563.33565852
3494,195360563.33565855
2,10, 1,10, 0, 8, 0.00,60.00,Tuesday
137,305649173.2600844
3494,305649173.2600844
2,10, 1,10, 0, 9, 0.00,60.00,Tuesday
137,300836740.1600759
3494,300836740.1600759
2,10, 1,10, 0,10, 0.00,60.00,Tuesday
137,245273383.74808884
3494,245273383.74808887
2,10, 1,10, 0,11, 0.00,60.00,Tuesday
137,240851863.9668737
3494,240851863.9668737
2,10, 1,10, 0,12, 0.00,60.00,Tuesday
137,254844447.7557
3494,254844447.7557
2,10, 1,10, 0,13, 0.00,60.00,Tuesday
137,256275284.507152
3494,256275284.50715202
2,10, 1,10, 0,14, 0.00,60.00,Tuesday
137,270047896.27727556
3494,270047896.27727556
2,10, 1,10, 0,15, 0.00,60.00,Tuesday
137,262061908.98038965
3494,262061908.98038965
2,10, 1,10, 0,16, 0.00,60.00,Tuesday
137,258775949.45694476
3494,258775949.4569448
2,10, 1,10, 0,17, 0.00,60.00,Tuesday
137,273912829.0873607
3494,273912829.08736074
2,10, 1,10, 0,18, 0.00,60.00,Tuesday
137,225667248.20636398
3494,225667248.20636404
2,10, 1,10, 0,19, 0.00,60.00,Tuesday
137,146358516.8923885
3494,146358516.89238846
2,10, 1,10, 0,20, 0.00,60.00,Tuesday
137,142953215.1740884
3494,142953215.1740884
2,10, 1,10, 0,21, 0.00,60.00,Tuesday
137,138783773.80702493
3494,138783773.807025
2,10, 1,10, 0,22, 0.00,60.00,Tuesday
137,145679348.65451527
3494,145679348.65451527
2,10, 1,10, 0,23, 0.00,60.00,Tuesday
137,85134722.37354441
3494,85134722.37354442
2,10, 1,10, 0,24, 0.00,60.00,Tuesday
137,80131530.28038286
3494,80131530.28038286
2,11, 1,11, 0, 1, 0.00,60.00,Wednesday
137,65597949.44438682
3494,65597949.44438682
2,11, 1,11, 0, 2, 0.00,60.00,Wednesday
137,65407915.1537362
3494,65407915.1537362
2,11, 1,11, 0, 3, 0.00,60.00,Wednesday
137,65407915.1537362
3494,65407915.1537362
2,11, 1,11, 0, 4, 0.00,60.00,Wednesday
137,65407915.1537362
3494,65407915.1537362
2,11, 1,11, 0, 5, 0.00,60.00,Wednesday
137,65407915.1537362
3494,65407915.1537362
2,11, 1,11, 0, 6, 0.00,60.00,Wednesday
137,65407915.1537362
3494,65407915.1537362
2,11, 1,11, 0, 7, 0.00,60.00,Wednesday
137,142931153.02532718
3494,142931153.0253272
2,11, 1,11, 0, 8, 0.00,60.00,Wednesday
137,262922322.74354902
3494,262922322.74354905
2,11, 1,11, 0, 9, 0.00,60.00,Wednesday
137,283127570.5543191
3494,283127570.55431914
2,11, 1,11, 0,10, 0.00,60.00,Wednesday
137,241348395.35073927
3494,241348395.35073933
2,11, 1,11, 0,11, 0.00,60.00,Wednesday
137,239097742.5998545
3494,239097742.59985453
2,11, 1,11, 0,12, 0.00,60.00,Wednesday
137,255739988.5068656
3494,255739988.5068656
2,11, 1,11, 0,13, 0.00,60.00,Wednesday
137,262127019.52886558
3494,262127019.52886558
2,11, 1,11, 0,14, 0.00,60.00,Wednesday
137,277891795.1497513
3494,277891795.1497513
2,11, 1,11, 0,15, 0.00,60.00,Wednesday
137,269234354.9539809
3494,269234354.9539809
2,11, 1,11, 0,16, 0.00,60.00,Wednesday
137,265426463.1893947
3494,265426463.1893947
2,11, 1,11, 0,17, 0.00,60.00,Wednesday
137,279542548.5365424
3494,279542548.5365425
2,11, 1,11, 0,18, 0.00,60.00,Wednesday
137,220677157.9236139
3494,220677157.92361394
2,11, 1,11, 0,19, 0.00,60.00,Wednesday
137,146722096.69440377
3494,146722096.69440377
2,11, 1,11, 0,20, 0.00,60.00,Wednesday
137,135652521.26129416
3494,135652521.26129416
2,11, 1,11, 0,21, 0.00,60.00,Wednesday
137,129235636.74108705
3494,129235636.74108705
2,11, 1,11, 0,22, 0.00,60.00,Wednesday
137,133277701.73451132
3494,133277701.7345113
2,11, 1,11, 0,23, 0.00,60.00,Wednesday
137,85134722.37354441
3494,85134722.37354442
2,11, 1,11, 0,24, 0.00,60.00,Wednesday
137,80131530.28038286
3494,80131530.28038286
2,12, 1,12, 0, 1, 0.00,60.00,Thursday
137,65597949.44438682
3494,65597949.44438682
2,12, 1,12, 0, 2, 0.00,60.00,Thursday
137,65407915.1537362
3494,65407915.1537362
2,12, 1,12, 0, 3, 0.00,60.00,Thursday
137,65407915.1537362
3494,65407915.1537362
2,12, 1,12, 0, 4, 0.00,60.00,Thursday
137,65407915.1537362
3494,65407915.1537362
2,12, 1,12, 0, 5, 0.00,60.00,Thursday
137,65407915.1537362
3494,65407915.1537362
2,12, 1,12, 0, 6, 0.00,60.00,Thursday
137,65407915.1537362
3494,65407915.1537362
2,12, 1,12, 0, 7, 0.00,60.00,Thursday
137,118006757.35477664
3494,118006757.35477664
2,12, 1,12, 0, 8, 0.00,60.00,Thursday
137,229850644.3598779
3494,229850644.3598779
2,12, 1,12, 0, 9, 0.00,60.00,Thursday
137,265121034.53931263
3494,265121034.5393127
2,12, 1,12, 0,10, 0.00,60.00,Thursday
137,240880231.19076326
3494,240880231.1907633
2,12, 1,12, 0,11, 0.00,60.00,Thursday
137,250880208.5639768
3494,250880208.56397682
2,12, 1,12, 0,12, 0.00,60.00,Thursday
137,267737089.88907462
3494,267737089.88907462
2,12, 1,12, 0,13, 0.00,60.00,Thursday
137,270332912.42096084
3494,270332912.42096084
2,12, 1,12, 0,14, 0.00,60.00,Thursday
137,287140928.5433878
3494,287140928.5433878
2,12, 1,12, 0,15, 0.00,60.00,Thursday
137,279755501.60168993
3494,279755501.60168993
2,12, 1,12, 0,16, 0.00,60.00,Thursday
137,278648206.40186614
3494,278648206.4018662
2,12, 1,12, 0,17, 0.00,60.00,Thursday
137,290362165.75641227
3494,290362165.75641227
2,12, 1,12, 0,18, 0.00,60.00,Thursday
137,222334752.82802153
3494,222334752.82802156
2,12, 1,12, 0,19, 0.00,60.00,Thursday
137,151240143.5123108
3494,151240143.5123108
2,12, 1,12, 0,20, 0.00,60.00,Thursday
137,139148988.24482393
3494,139148988.24482396
2,12, 1,12, 0,21, 0.00,60.00,Thursday
137,125967335.43367308
3494,125967335.43367308
2,12, 1,12, 0,22, 0.00,60.00,Thursday
137,122086380.26565847
3494,122086380.26565847
2,12, 1,12, 0,23, 0.00,60.00,Thursday
137,85134722.37354441
3494,85134722.37354442
2,12, 1,12, 0,24, 0.00,60.00,Thursday
137,80131530.28038286
3494,80131530.28038286
2,13, 1,13, 0, 1, 0.00,60.00,Friday
137,65597949.44438682
3494,65597949.44438682
2,13, 1,13, 0, 2, 0.00,60.00,Friday
137,65407915.1537362
3494,65407915.1537362
2,13, 1,13, 0, 3, 0.00,60.00,Friday
137,65407915.1537362
3494,65407915.1537362
2,13, 1,13, 0, 4, 0.00,60.00,Friday
137,65407915.1537362
3494,65407915.1537362
2,13, 1,13, 0, 5, 0.00,60.00,Friday
137,65407915.1537362
3494,65407915.1537362
2,13, 1,13, 0, 6, 0.00,60.00,Friday
137,65407915.1537362
3494,65407915.1537362
2,13, 1,13, 0, 7, 0.00,60.00,Friday
137,113685451.26849367
3494,113685451.26849368
2,13, 1,13, 0, 8, 0.00,60.00,Friday
137,211158971.3132311
3494,211158971.3132311
2,13, 1,13, 0, 9, 0.00,60.00,Friday
137,259259704.16584837
3494,259259704.16584843
2,13, 1,13, 0,10, 0.00,60.00,Friday
137,242077644.630952
3494,242077644.63095203
2,13, 1,13, 0,11, 0.00,60.00,Friday
137,255315068.1062994
3494,255315068.10629943
2,13, 1,13, 0,12, 0.00,60.00,Friday
137,275509634.7865042
3494,275509634.7865042
2,13, 1,13, 0,13, 0.00,60.00,Friday
137,275963804.26537514
3494,275963804.26537514
2,13, 1,13, 0,14, 0.00,60.00,Friday
137,289676897.40850735
3494,289676897.4085073
2,13, 1,13, 0,15, 0.00,60.00,Friday
137,280175583.6052364
3494,280175583.6052365
2,13, 1,13, 0,16, 0.00,60.00,Friday
137,281262128.8368663
3494,281262128.8368663
2,13, 1,13, 0,17, 0.00,60.00,Friday
137,297649478.82375646
3494,297649478.82375646
2,13, 1,13, 0,18, 0.00,60.00,Friday
137,230818332.7959421
3494,230818332.7959421
2,13, 1,13, 0,19, 0.00,60.00,Friday
137,158571463.0815061
3494,158571463.0815061
2,13, 1,13, 0,20, 0.00,60.00,Friday
137,145492788.0213719
3494,145492788.0213719
2,13, 1,13, 0,21, 0.00,60.00,Friday
137,132315434.08940676
3494,132315434.08940673
2,13, 1,13, 0,22, 0.00,60.00,Friday
137,128080516.30725594
3494,128080516.30725594
2,13, 1,13, 0,23, 0.00,60.00,Friday
137,85134722.37354441
3494,85134722.37354442
2,13, 1,13, 0,24, 0.00,60.00,Friday
137,80131530.28038286
3494,80131530.28038286
2,14, 1,14, 0, 1, 0.00,60.00,Saturday
137,54347289.79607374
3494,54347289.79607374
2,14, 1,14, 0, 2, 0.00,60.00,Saturday
137,54157290.74955592
3494,54157290.74955592
2,14, 1,14, 0, 3, 0.00,60.00,Saturday
137,54157290.74955592
3494,54157290.74955592
2,14, 1,14, 0, 4, 0.00,60.00,Saturday
137,54157290.74955592
3494,54157290.74955592
2,14, 1,14, 0, 5, 0.00,60.00,Saturday
137,54157290.74955592
3494,54157290.74955592
2,14, 1,14, 0, 6, 0.00,60.00,Saturday
137,54157290.74955592
3494,54157290.74955592
2,14, 1,14, 0, 7, 0.00,60.00,Saturday
137,104985638.04463206
3494,104985638.04463206
2,14, 1,14, 0, 8, 0.00,60.00,Saturday
137,123428633.32244615
3494,123428633.32244614
2,14, 1,14, 0, 9, 0.00,60.00,Saturday
137,124908970.45438327
3494,124908970.45438327
2,14, 1,14, 0,10, 0.00,60.00,Saturday
137,130956569.43809333
3494,130956569.43809335
2,14, 1,14, 0,11, 0.00,60.00,Saturday
137,141380108.89294744
3494,141380108.8929474
2,14, 1,14, 0,12, 0.00,60.00,Saturday
137,163113632.92835984
3494,163113632.9283598
2,14, 1,14, 0,13, 0.00,60.00,Saturday
137,137268208.37969148
3494,137268208.37969148
2,14, 1,14, 0,14, 0.00,60.00,Saturday
137,137449230.33158568
3494,137449230.3315857
2,14, 1,14, 0,15, 0.00,60.00,Saturday
137,136204468.5726342
3494,136204468.5726342
2,14, 1,14, 0,16, 0.00,60.00,Saturday
137,131855536.47536464
3494,131855536.47536466
2,14, 1,14, 0,17, 0.00,60.00,Saturday
137,125782026.82740855
3494,125782026.82740857
2,14, 1,14, 0,18, 0.00,60.00,Saturday
137,125639274.34483555
3494,125639274.34483555
2,14, 1,14, 0,19, 0.00,60.00,Saturday
137,74637639.57987787
3494,74637639.57987787
2,14, 1,14, 0,20, 0.00,60.00,Saturday
137,57110793.79607374
3494,57110793.79607375
2,14, 1,14, 0,21, 0.00,60.00,Saturday
137,56920794.74955592
3494,56920794.74955593
2,14, 1,14, 0,22, 0.00,60.00,Saturday
137,56920794.74955592
3494,56920794.74955593
2,14, 1,14, 0,23, 0.00,60.00,Saturday
137,56920794.74955592
3494,56920794.74955593
2,14, 1,14, 0,24, 0.00,60.00,Saturday
137,56920794.74955592
3494,56920794.74955593
2,15, 1,15, 0, 1, 0.00,60.00,Sunday
137,54157290.74955592
3494,54157290.74955592
2,15, 1,15, 0, 2, 0.00,60.00,Sunday
137,54157290.74955592
3494,54157290.74955592
2,15, 1,15, 0, 3, 0.00,60.00,Sunday
137,54157290.74955592
3494,54157290.74955592
2,15, 1,15, 0, 4, 0.00,60.00,Sunday
137,54157290.74955592
3494,54157290.74955592
2,15, 1,15, 0, 5, 0.00,60.00,Sunday
137,54157290.74955592
3494,54157290.74955592
2,15, 1,15, 0, 6, 0.00,60.00,Sunday
137,54157290.74955592
3494,54157290.74955592
2,15, 1,15, 0, 7, 0.00,60.00,Sunday
137,74447615.50655627
3494,74447615.50655627
2,15, 1,15, 0, 8, 0.00,60.00,Sunday
137,53838002.09699553
3494,53838002.09699553
2,15, 1,15, 0, 9, 0.00,60.00,Sunday
137,53111111.28514505
3494,53111111.28514505
2,15, 1,15, 0,10, 0.00,60.00,Sunday
137,53100571.45300382
3494,53100571.45300382
2,15, 1,15, 0,11, 0.00,60.00,Sunday
137,53100571.45300382
3494,53100571.45300382
2,15, 1,15, 0,12, 0.00,60.00,Sunday
137,62232005.88874273
3494,62232005.88874273
2,15, 1,15, 0,13, 0.00,60.00,Sunday
137,92251729.05697578
3494,92251729.05697578
2,15, 1,15, 0,14, 0.00,60.00,Sunday
137,85046236.64760965
3494,85046236.64760965
2,15, 1,15, 0,15, 0.00,60.00,Sunday
137,82323605.20560856
3494,82323605.20560855
2,15, 1,15, 0,16, 0.00,60.00,Sunday
137,55746640.14153411
3494,55746640.14153411
2,15, 1,15, 0,17, 0.00,60.00,Sunday
137,53458278.98675278
3494,53458278.98675278
2,15, 1,15, 0,18, 0.00,60.00,Sunday
137,74637620.79657003
3494,74637620.79657003
2,15, 1,15, 0,19, 0.00,60.00,Sunday
137,65597289.79607374
3494,65597289.79607374
2,15, 1,15, 0,20, 0.00,60.00,Sunday
137,56920794.74955592
3494,56920794.74955593
2,15, 1,15, 0,21, 0.00,60.00,Sunday
137,56920794.74955592
3494,56920794.74955593
2,15, 1,15, 0,22, 0.00,60.00,Sunday