Program Version,EnergyPlus, Version 25.1.0-68a4a7c774, YMD=2026.01.07 23:31
1,5,Environment Title[],Latitude[deg],Longitude[deg],Time Zone[],Elevation[m]
2,8,Day of Simulation[],Month[],Day of Month[],DST Indicator[1=yes 0=no],Hour[],StartMinute[],EndMinute[],DayType
3,5,Cumulative Day of Simulation[],Month[],Day of Month[],DST Indicator[1=yes 0=no],DayType  ! When Daily Meters Requested
4,2,Cumulative Days of Simulation[],Month[]  ! When Monthly Meters Requested
5,1,Cumulative Days of Simulation[] ! When Run Period Meters Requested
6,1,Calendar Year of Simulation[] ! When Annual Meters Requested
137,1,Electricity:Facility [J] !Hourly
3494,1,ElectricityNet:Facility [J] !Hourly
End of Data Dictionary
1,LOS ANGELES-USA ANN CLG 0.4% CONDNS DB=>MWB,  34.05,-118.24,  -8.00,   0.00
2,1, 7,21, 0, 1, 0.00,60.00,SummerDesignDay
137,351042723.811192
3494,351042723.811192
2,1, 7,21, 0, 2, 0.00,60.00,SummerDesignDay
137,346315496.95095116
3494,346315496.9509512
2,1, 7,21, 0, 3, 0.00,60.00,SummerDesignDay
137,354832502.2927973
3494,354832502.2927973
2,1, 7,21, 0, 4, 0.00,60.00,SummerDesignDay
137,352050591.3948529
3494,352050591.3948529
2,1, 7,21, 0, 5, 0.00,60.00,SummerDesignDay
137,353063840.7213553
3494,353063840.7213553
2,1, 7,21, 0, 6, 0.00,60.00,SummerDesignDay
137,346033683.0770222
3494,346033683.0770222
2,1, 7,21, 0, 7, 0.00,60.00,SummerDesignDay
137,418418620.74845725
3494,418418620.7484572
2,1, 7,21, 0, 8, 0.00,60.00,SummerDesignDay
137,522229908.6972557
3494,522229908.6972557
2,1, 7,21, 0, 9, 0.00,60.00,SummerDesignDay
137,525577428.75175154
3494,525577428.75175166
2,1, 7,21, 0,10, 0.00,60.00,SummerDesignDay
137,543593686.2796673
3494,543593686.2796674
2,1, 7,21, 0,11, 0.00,60.00,SummerDesignDay
137,560125397.4114518
3494,560125397.4114518
2,1, 7,21, 0,12, 0.00,60.00,SummerDesignDay
137,571261363.7111286
3494,571261363.7111286
2,1, 7,21, 0,13, 0.00,60.00,SummerDesignDay
137,583679378.7789433
3494,583679378.7789433
2,1, 7,21, 0,14, 0.00,60.00,SummerDesignDay
137,598510887.1731546
3494,598510887.1731546
2,1, 7,21, 0,15, 0.00,60.00,SummerDesignDay
137,607153817.2988961
3494,607153817.2988961
2,1, 7,21, 0,16, 0.00,60.00,SummerDesignDay
137,605520685.7982593
3494,605520685.7982591
2,1, 7,21, 0,17, 0.00,60.00,SummerDesignDay
137,595021969.9007474
3494,595021969.9007474
2,1, 7,21, 0,18, 0.00,60.00,SummerDesignDay
137,573298040.3373191
3494,573298040.3373191
2,1, 7,21, 0,19, 0.00,60.00,SummerDesignDay
137,532587670.4516878
3494,532587670.45168793
2,1, 7,21, 0,20, 0.00,60.00,SummerDesignDay
137,505046422.4923127
3494,505046422.4923128
2,1, 7,21, 0,21, 0.00,60.00,SummerDesignDay
137,484358308.8492466
3494,484358308.84924644
2,1, 7,21, 0,22, 0.00,60.00,SummerDesignDay
137,469219053.1263795
3494,469219053.1263795
2,1, 7,21, 0,23, 0.00,60.00,SummerDesignDay
137,337210638.37784094
3494,337210638.37784094
2,1, 7,21, 0,24, 0.00,60.00,SummerDesignDay
137,354953695.0209363
3494,354953695.0209363
1,LOS ANGELES-USA ANN HTG 99.6% CONDNS DB,  34.05,-118.24,  -8.00,   0.00
2,1, 1,21, 0, 1, 0.00,60.00,WinterDesignDay
137,16750170.6497561
3494,16750170.649756094
2,1, 1,21, 0, 2, 0.00,60.00,WinterDesignDay
137,16750170.6497561
3494,16750170.649756094
2,1, 1,21, 0, 3, 0.00,60.00,WinterDesignDay
137,16750170.6497561
3494,16750170.649756094
2,1, 1,21, 0, 4, 0.00,60.00,WinterDesignDay
137,25506939.903437696
3494,25506939.903437696
2,1, 1,21, 0, 5, 0.00,60.00,WinterDesignDay
137,30487072.46052485
3494,30487072.46052485
2,1, 1,21, 0, 6, 0.00,60.00,WinterDesignDay
137,31227139.18829077
3494,31227139.188290767
2,1, 1,21, 0, 7, 0.00,60.00,WinterDesignDay
137,396133296.4749628
3494,396133296.4749628
2,1, 1,21, 0, 8, 0.00,60.00,WinterDesignDay
137,590113888.5343225
3494,590113888.5343226
2,1, 1,21, 0, 9, 0.00,60.00,WinterDesignDay
137,514986426.9282743
3494,514986426.9282744
2,1, 1,21, 0,10, 0.00,60.00,WinterDesignDay
137,486740697.4245143
3494,486740697.4245143
2,1, 1,21, 0,11, 0.00,60.00,WinterDesignDay
137,470606628.45435154
3494,470606628.45435154
2,1, 1,21, 0,12, 0.00,60.00,WinterDesignDay
137,457264097.33680934
3494,457264097.33680934
2,1, 1,21, 0,13, 0.00,60.00,WinterDesignDay
137,446477739.9072268
3494,446477739.9072268
2,1, 1,21, 0,14, 0.00,60.00,WinterDesignDay
137,437129886.64252853
3494,437129886.64252853
2,1, 1,21, 0,15, 0.00,60.00,WinterDesignDay
137,429090988.7770209
3494,429090988.777021
2,1, 1,21, 0,16, 0.00,60.00,WinterDesignDay
137,421872861.5241932
3494,421872861.5241933
2,1, 1,21, 0,17, 0.00,60.00,WinterDesignDay
137,415212499.34425116
3494,415212499.3442513
2,1, 1,21, 0,18, 0.00,60.00,WinterDesignDay
137,430222500.5847287
3494,430222500.5847287
2,1, 1,21, 0,19, 0.00,60.00,WinterDesignDay
137,359060824.26380193
3494,359060824.26380193
2,1, 1,21, 0,20, 0.00,60.00,WinterDesignDay
137,303932341.5139888
3494,303932341.5139888
2,1, 1,21, 0,21, 0.00,60.00,WinterDesignDay
137,374851323.58336586
3494,374851323.58336586
2,1, 1,21, 0,22, 0.00,60.00,WinterDesignDay
137,307277277.44639033
3494,307277277.44639033
2,1, 1,21, 0,23, 0.00,60.00,WinterDesignDay
137,19513674.6497561
3494,19513674.6497561
2,1, 1,21, 0,24, 0.00,60.00,WinterDesignDay
137,19513674.6497561
3494,19513674.6497561
End of Data
 Number of Records Written=          96
